<?xml version="1.0"?>
<VTKFile type="UnstructuredGrid" version="0.1" byte_order="LittleEndian">
  <UnstructuredGrid>
    <Piece NumberOfPoints="8" NumberOfCells="1">
      <Points>
        <DataArray type="Float64" NumberOfComponents="3" format="ascii">
          -2.50000000e+00 -2.50000000e+00 0.00000000e+00 
-1.50000000e+00 -2.50000000e+00 0.00000000e+00 
-2.50000000e+00 -1.50000000e+00 0.00000000e+00 
-1.50000000e+00 -1.50000000e+00 0.00000000e+00 
-2.50000000e+00 -2.50000000e+00 1.00000000e+00 
-1.50000000e+00 -2.50000000e+00 1.00000000e+00 
-2.50000000e+00 -1.50000000e+00 1.00000000e+00 
-1.50000000e+00 -1.50000000e+00 1.00000000e+00 

        </DataArray>
      </Points>
      <Cells>
        <DataArray type="Int32" Name="connectivity" format="ascii">
0 1 3 2 4 5 7 6 

        </DataArray>
        <DataArray type="Int32" Name="offsets" format="ascii">
8 
        </DataArray>
        <DataArray type="UInt8" Name="types" format="ascii">
12 
        </DataArray>
      </Cells>
      <PointData>
        <DataArray type="Float64" Name="T">
          1.87283516e-02 -4.25330173e-02 2.52023124e-02 -4.57805984e-03 3.31143227e-02 7.20975175e-02 -1.12774708e-02 5.07774459e-02 
        </DataArray>
        <DataArray type="Float64" Name="ne">
          -1.26759077e+00 2.05227281e+00 -5.14787646e+00 2.55779024e+00 -6.01744800e+00 -1.68517857e+00 -8.34918617e+00 7.82983724e-01 
        </DataArray>
        <DataArray type="Float64" Name="w">
          -8.42191880e-01 -1.73173417e+00 4.07866109e+00 -2.96015117e+00 6.78462561e+00 7.89378934e+00 6.48166328e+00 6.17755371e+00 
        </DataArray>
        <DataArray type="Float64" Name="phi">
          1.26180784e-10 -3.57596303e-01 -1.71580372e+00 -1.05251365e-01 -2.87733570e+00 -9.08949014e-01 -2.52565049e+00 -9.45184707e-01 
        </DataArray>
        <DataArray type="Float64" Name="gradphi0">
          -3.57596304e-01 -3.57596304e-01 1.61055236e+00 1.61055236e+00 1.96838668e+00 1.96838668e+00 1.58046578e+00 1.58046578e+00 
        </DataArray>
        <DataArray type="Float64" Name="gradphi1">
          -1.71580372e+00 2.52344938e-01 -1.71580372e+00 2.52344938e-01 3.51685210e-01 -3.62356930e-02 3.51685210e-01 -3.62356930e-02 
        </DataArray>
        <DataArray type="Float64" Name="gradphi2">
          -2.87733570e+00 -5.51352710e-01 -8.09846761e-01 -8.39933341e-01 -2.87733570e+00 -5.51352710e-01 -8.09846761e-01 -8.39933341e-01 
        </DataArray>
      </PointData>
    </Piece>
    <Piece NumberOfPoints="8" NumberOfCells="1">
      <Points>
        <DataArray type="Float64" NumberOfComponents="3" format="ascii">
          -2.50000000e+00 -2.50000000e+00 1.00000000e+00 
-1.50000000e+00 -2.50000000e+00 1.00000000e+00 
-2.50000000e+00 -1.50000000e+00 1.00000000e+00 
-1.50000000e+00 -1.50000000e+00 1.00000000e+00 
-2.50000000e+00 -2.50000000e+00 2.00000000e+00 
-1.50000000e+00 -2.50000000e+00 2.00000000e+00 
-2.50000000e+00 -1.50000000e+00 2.00000000e+00 
-1.50000000e+00 -1.50000000e+00 2.00000000e+00 

        </DataArray>
      </Points>
      <Cells>
        <DataArray type="Int32" Name="connectivity" format="ascii">
0 1 3 2 4 5 7 6 

        </DataArray>
        <DataArray type="Int32" Name="offsets" format="ascii">
8 
        </DataArray>
        <DataArray type="UInt8" Name="types" format="ascii">
12 
        </DataArray>
      </Cells>
      <PointData>
        <DataArray type="Float64" Name="T">
          1.52973213e-02 2.70742761e-01 8.75813854e-02 1.18082880e-01 2.54177820e-01 -1.91950989e-01 2.46785981e-01 -5.28443916e-02 
        </DataArray>
        <DataArray type="Float64" Name="ne">
          -6.25607500e+00 1.01975662e+00 -6.65965382e+00 5.98179057e-02 -4.72132223e+00 1.02510404e+00 -4.80054974e+00 5.20827137e-01 
        </DataArray>
        <DataArray type="Float64" Name="w">
          5.95122521e+00 5.13229246e+00 6.17483633e+00 5.50931169e+00 5.77595117e+00 1.92561656e+00 6.09915661e+00 3.06144217e+00 
        </DataArray>
        <DataArray type="Float64" Name="phi">
          -2.87733570e+00 -9.08949014e-01 -2.52565049e+00 -9.45184707e-01 -2.57769653e+00 -4.74032480e-01 -2.68939579e+00 -7.15100013e-01 
        </DataArray>
        <DataArray type="Float64" Name="gradphi0">
          1.96838668e+00 1.96838668e+00 1.58046578e+00 1.58046578e+00 2.10366405e+00 2.10366405e+00 1.97429578e+00 1.97429578e+00 
        </DataArray>
        <DataArray type="Float64" Name="gradphi1">
          3.51685210e-01 -3.62356930e-02 3.51685210e-01 -3.62356930e-02 -1.11699260e-01 -2.41067532e-01 -1.11699260e-01 -2.41067532e-01 
        </DataArray>
        <DataArray type="Float64" Name="gradphi2">
          2.99639165e-01 4.34916533e-01 -1.63745306e-01 2.30084694e-01 2.99639165e-01 4.34916533e-01 -1.63745306e-01 2.30084694e-01 
        </DataArray>
      </PointData>
    </Piece>
    <Piece NumberOfPoints="8" NumberOfCells="1">
      <Points>
        <DataArray type="Float64" NumberOfComponents="3" format="ascii">
          -2.50000000e+00 -2.50000000e+00 2.00000000e+00 
-1.50000000e+00 -2.50000000e+00 2.00000000e+00 
-2.50000000e+00 -1.50000000e+00 2.00000000e+00 
-1.50000000e+00 -1.50000000e+00 2.00000000e+00 
-2.50000000e+00 -2.50000000e+00 3.00000000e+00 
-1.50000000e+00 -2.50000000e+00 3.00000000e+00 
-2.50000000e+00 -1.50000000e+00 3.00000000e+00 
-1.50000000e+00 -1.50000000e+00 3.00000000e+00 

        </DataArray>
      </Points>
      <Cells>
        <DataArray type="Int32" Name="connectivity" format="ascii">
0 1 3 2 4 5 7 6 

        </DataArray>
        <DataArray type="Int32" Name="offsets" format="ascii">
8 
        </DataArray>
        <DataArray type="UInt8" Name="types" format="ascii">
12 
        </DataArray>
      </Cells>
      <PointData>
        <DataArray type="Float64" Name="T">
          2.26558218e-01 1.36918203e-02 1.94595511e-01 4.85610666e-02 -1.90794887e-01 -2.14250867e-01 -1.82052576e-01 -1.41710938e-01 
        </DataArray>
        <DataArray type="Float64" Name="ne">
          -4.22339186e+00 -5.84058918e-01 -3.47266808e+00 1.58063303e-01 2.73169731e+00 -8.70867251e+00 1.64324538e+00 -8.73444625e-03 
        </DataArray>
        <DataArray type="Float64" Name="w">
          5.30295381e+00 2.39556298e+00 3.68758686e+00 1.31264904e+00 2.00280234e-02 -3.85076343e+00 6.11049391e+00 -1.54868774e+00 
        </DataArray>
        <DataArray type="Float64" Name="phi">
          -2.57769653e+00 -4.74032480e-01 -2.68939579e+00 -7.15100013e-01 -1.09236689e+00 9.32043939e-01 -2.48519991e+00 1.96106644e-02 
        </DataArray>
        <DataArray type="Float64" Name="gradphi0">
          2.10366405e+00 2.10366405e+00 1.97429578e+00 1.97429578e+00 2.02441083e+00 2.02441083e+00 2.50481057e+00 2.50481057e+00 
        </DataArray>
        <DataArray type="Float64" Name="gradphi1">
          -1.11699260e-01 -2.41067532e-01 -1.11699260e-01 -2.41067532e-01 -1.39283302e+00 -9.12433275e-01 -1.39283302e+00 -9.12433275e-01 
        </DataArray>
        <DataArray type="Float64" Name="gradphi2">
          1.48532964e+00 1.40607642e+00 2.04195884e-01 7.34710677e-01 1.48532964e+00 1.40607642e+00 2.04195884e-01 7.34710677e-01 
        </DataArray>
      </PointData>
    </Piece>
    <Piece NumberOfPoints="8" NumberOfCells="1">
      <Points>
        <DataArray type="Float64" NumberOfComponents="3" format="ascii">
          -2.50000000e+00 -2.50000000e+00 3.00000000e+00 
-1.50000000e+00 -2.50000000e+00 3.00000000e+00 
-2.50000000e+00 -1.50000000e+00 3.00000000e+00 
-1.50000000e+00 -1.50000000e+00 3.00000000e+00 
-2.50000000e+00 -2.50000000e+00 4.00000000e+00 
-1.50000000e+00 -2.50000000e+00 4.00000000e+00 
-2.50000000e+00 -1.50000000e+00 4.00000000e+00 
-1.50000000e+00 -1.50000000e+00 4.00000000e+00 

        </DataArray>
      </Points>
      <Cells>
        <DataArray type="Int32" Name="connectivity" format="ascii">
0 1 3 2 4 5 7 6 

        </DataArray>
        <DataArray type="Int32" Name="offsets" format="ascii">
8 
        </DataArray>
        <DataArray type="UInt8" Name="types" format="ascii">
12 
        </DataArray>
      </Cells>
      <PointData>
        <DataArray type="Float64" Name="T">
          -2.05453099e-01 -7.03357864e-03 -1.75426771e-01 -9.09951833e-02 -1.77714979e-02 3.63684517e-01 -3.75527337e-01 1.70542877e-01 
        </DataArray>
        <DataArray type="Float64" Name="ne">
          4.81213808e-01 -8.21748356e+00 -2.96211364e-01 1.14815165e-01 2.20966668e+00 -6.68598390e+00 1.14510035e+01 3.20784207e+00 
        </DataArray>
        <DataArray type="Float64" Name="w">
          1.73212655e-01 -3.74791602e+00 8.16989336e+00 -1.62523060e+00 -1.99091943e+00 -6.06037174e+00 3.84973306e+00 -4.38015127e+00 
        </DataArray>
        <DataArray type="Float64" Name="phi">
          -1.09236689e+00 9.32043939e-01 -2.48519991e+00 1.96106644e-02 -2.86900702e-01 1.45319713e+00 -2.02068820e+00 5.31694431e-01 
        </DataArray>
        <DataArray type="Float64" Name="gradphi0">
          2.02441083e+00 2.02441083e+00 2.50481057e+00 2.50481057e+00 1.74009783e+00 1.74009783e+00 2.55238263e+00 2.55238263e+00 
        </DataArray>
        <DataArray type="Float64" Name="gradphi1">
          -1.39283302e+00 -9.12433275e-01 -1.39283302e+00 -9.12433275e-01 -1.73378750e+00 -9.21502701e-01 -1.73378750e+00 -9.21502701e-01 
        </DataArray>
        <DataArray type="Float64" Name="gradphi2">
          8.05466188e-01 5.21153193e-01 4.64511706e-01 5.12083767e-01 8.05466188e-01 5.21153193e-01 4.64511706e-01 5.12083767e-01 
        </DataArray>
      </PointData>
    </Piece>
    <Piece NumberOfPoints="8" NumberOfCells="1">
      <Points>
        <DataArray type="Float64" NumberOfComponents="3" format="ascii">
          -2.50000000e+00 -2.50000000e+00 4.00000000e+00 
-1.50000000e+00 -2.50000000e+00 4.00000000e+00 
-2.50000000e+00 -1.50000000e+00 4.00000000e+00 
-1.50000000e+00 -1.50000000e+00 4.00000000e+00 
-2.50000000e+00 -2.50000000e+00 5.00000000e+00 
-1.50000000e+00 -2.50000000e+00 5.00000000e+00 
-2.50000000e+00 -1.50000000e+00 5.00000000e+00 
-1.50000000e+00 -1.50000000e+00 5.00000000e+00 

        </DataArray>
      </Points>
      <Cells>
        <DataArray type="Int32" Name="connectivity" format="ascii">
0 1 3 2 4 5 7 6 

        </DataArray>
        <DataArray type="Int32" Name="offsets" format="ascii">
8 
        </DataArray>
        <DataArray type="UInt8" Name="types" format="ascii">
12 
        </DataArray>
      </Cells>
      <PointData>
        <DataArray type="Float64" Name="T">
          -2.12562354e-02 1.72213418e-01 -1.91364772e-01 1.13366000e-01 -7.25123531e-02 6.02050122e-02 -6.97241442e-02 -3.33603704e-02 
        </DataArray>
        <DataArray type="Float64" Name="ne">
          1.75307462e+00 -6.97664913e+00 1.18742700e+01 3.18583479e+00 4.55313434e+00 -9.26737019e+00 1.56690110e-01 7.82856729e-01 
        </DataArray>
        <DataArray type="Float64" Name="w">
          -2.18060609e+00 -5.55297326e+00 3.17664912e+00 -4.52051462e+00 1.22072024e-01 1.01521364e+00 2.71545802e+00 6.03539883e-01 
        </DataArray>
        <DataArray type="Float64" Name="phi">
          -2.86900702e-01 1.45319713e+00 -2.02068820e+00 5.31694431e-01 -1.22342420e+00 4.88000241e-01 -2.07371118e+00 -5.79554681e-02 
        </DataArray>
        <DataArray type="Float64" Name="gradphi0">
          1.74009783e+00 1.74009783e+00 2.55238263e+00 2.55238263e+00 1.71142444e+00 1.71142444e+00 2.01575571e+00 2.01575571e+00 
        </DataArray>
        <DataArray type="Float64" Name="gradphi1">
          -1.73378750e+00 -9.21502701e-01 -1.73378750e+00 -9.21502701e-01 -8.50286979e-01 -5.45955709e-01 -8.50286979e-01 -5.45955709e-01 
        </DataArray>
        <DataArray type="Float64" Name="gradphi2">
          -9.36523498e-01 -9.65196891e-01 -5.30229774e-02 -5.89649900e-01 -9.36523498e-01 -9.65196891e-01 -5.30229774e-02 -5.89649900e-01 
        </DataArray>
      </PointData>
    </Piece>
    <Piece NumberOfPoints="8" NumberOfCells="1">
      <Points>
        <DataArray type="Float64" NumberOfComponents="3" format="ascii">
          -2.50000000e+00 -2.50000000e+00 5.00000000e+00 
-1.50000000e+00 -2.50000000e+00 5.00000000e+00 
-2.50000000e+00 -1.50000000e+00 5.00000000e+00 
-1.50000000e+00 -1.50000000e+00 5.00000000e+00 
-2.50000000e+00 -2.50000000e+00 6.00000000e+00 
-1.50000000e+00 -2.50000000e+00 6.00000000e+00 
-2.50000000e+00 -1.50000000e+00 6.00000000e+00 
-1.50000000e+00 -1.50000000e+00 6.00000000e+00 

        </DataArray>
      </Points>
      <Cells>
        <DataArray type="Int32" Name="connectivity" format="ascii">
0 1 3 2 4 5 7 6 

        </DataArray>
        <DataArray type="Int32" Name="offsets" format="ascii">
8 
        </DataArray>
        <DataArray type="UInt8" Name="types" format="ascii">
12 
        </DataArray>
      </Cells>
      <PointData>
        <DataArray type="Float64" Name="T">
          6.90922995e-02 -1.02224902e-02 4.13484843e-03 5.43444986e-02 1.03922209e-01 7.76106151e-02 6.99004270e-02 1.08816919e-01 
        </DataArray>
        <DataArray type="Float64" Name="ne">
          3.59471301e+00 -3.08543531e+00 -1.16236747e+00 2.23585748e+00 -8.42196850e+00 1.07180557e+01 -6.54316746e+00 3.46593951e+00 
        </DataArray>
        <DataArray type="Float64" Name="w">
          7.57492785e-01 -2.45106876e+00 4.45477483e+00 -2.64055304e+00 6.02593884e+00 9.01035254e-01 5.66610298e+00 3.34603275e+00 
        </DataArray>
        <DataArray type="Float64" Name="phi">
          -1.22342420e+00 4.88000240e-01 -2.07371118e+00 -5.79554671e-02 -2.63723895e+00 -8.19257479e-02 -2.86061418e+00 -5.27012986e-01 
        </DataArray>
        <DataArray type="Float64" Name="gradphi0">
          1.71142444e+00 1.71142444e+00 2.01575571e+00 2.01575571e+00 2.55531320e+00 2.55531320e+00 2.33360119e+00 2.33360119e+00 
        </DataArray>
        <DataArray type="Float64" Name="gradphi1">
          -8.50286980e-01 -5.45955707e-01 -8.50286980e-01 -5.45955707e-01 -2.23375234e-01 -4.45087238e-01 -2.23375234e-01 -4.45087238e-01 
        </DataArray>
        <DataArray type="Float64" Name="gradphi2">
          -1.41381475e+00 -5.69925988e-01 -7.86903000e-01 -4.69057519e-01 -1.41381475e+00 -5.69925988e-01 -7.86903000e-01 -4.69057519e-01 
        </DataArray>
      </PointData>
    </Piece>
    <Piece NumberOfPoints="8" NumberOfCells="1">
      <Points>
        <DataArray type="Float64" NumberOfComponents="3" format="ascii">
          -2.50000000e+00 -2.50000000e+00 6.00000000e+00 
-1.50000000e+00 -2.50000000e+00 6.00000000e+00 
-2.50000000e+00 -1.50000000e+00 6.00000000e+00 
-1.50000000e+00 -1.50000000e+00 6.00000000e+00 
-2.50000000e+00 -2.50000000e+00 7.00000000e+00 
-1.50000000e+00 -2.50000000e+00 7.00000000e+00 
-2.50000000e+00 -1.50000000e+00 7.00000000e+00 
-1.50000000e+00 -1.50000000e+00 7.00000000e+00 

        </DataArray>
      </Points>
      <Cells>
        <DataArray type="Int32" Name="connectivity" format="ascii">
0 1 3 2 4 5 7 6 

        </DataArray>
        <DataArray type="Int32" Name="offsets" format="ascii">
8 
        </DataArray>
        <DataArray type="UInt8" Name="types" format="ascii">
12 
        </DataArray>
      </Cells>
      <PointData>
        <DataArray type="Float64" Name="T">
          8.32838297e-02 5.71408560e-02 9.25008314e-02 1.25586895e-01 1.64376301e-01 -8.72896350e-02 1.27722750e-01 -8.50168155e-02 
        </DataArray>
        <DataArray type="Float64" Name="ne">
          -7.16883766e+00 6.76129104e+00 -6.33462795e+00 3.55254803e+00 -4.56892601e+00 6.81219344e+00 -3.49962874e+00 7.48450910e+00 
        </DataArray>
        <DataArray type="Float64" Name="w">
          6.18915917e+00 9.63548620e-01 5.81206491e+00 3.71797417e+00 5.59856839e+00 -8.34027130e-01 5.10644942e+00 -2.30666525e+00 
        </DataArray>
        <DataArray type="Float64" Name="phi">
          -2.63723895e+00 -8.19257479e-02 -2.86061418e+00 -5.27012986e-01 -2.70494088e+00 -2.37638752e-01 -2.40532864e+00 -4.87469842e-03 
        </DataArray>
        <DataArray type="Float64" Name="gradphi0">
          2.55531320e+00 2.55531320e+00 2.33360119e+00 2.33360119e+00 2.46730213e+00 2.46730213e+00 2.40045395e+00 2.40045395e+00 
        </DataArray>
        <DataArray type="Float64" Name="gradphi1">
          -2.23375234e-01 -4.45087238e-01 -2.23375234e-01 -4.45087238e-01 2.99612235e-01 2.32764054e-01 2.99612235e-01 2.32764054e-01 
        </DataArray>
        <DataArray type="Float64" Name="gradphi2">
          -6.77019349e-02 -1.55713004e-01 4.55285535e-01 5.22138288e-01 -6.77019349e-02 -1.55713004e-01 4.55285535e-01 5.22138288e-01 
        </DataArray>
      </PointData>
    </Piece>
    <Piece NumberOfPoints="8" NumberOfCells="1">
      <Points>
        <DataArray type="Float64" NumberOfComponents="3" format="ascii">
          -2.50000000e+00 -2.50000000e+00 7.00000000e+00 
-1.50000000e+00 -2.50000000e+00 7.00000000e+00 
-2.50000000e+00 -1.50000000e+00 7.00000000e+00 
-1.50000000e+00 -1.50000000e+00 7.00000000e+00 
-2.50000000e+00 -2.50000000e+00 8.00000000e+00 
-1.50000000e+00 -2.50000000e+00 8.00000000e+00 
-2.50000000e+00 -1.50000000e+00 8.00000000e+00 
-1.50000000e+00 -1.50000000e+00 8.00000000e+00 

        </DataArray>
      </Points>
      <Cells>
        <DataArray type="Int32" Name="connectivity" format="ascii">
0 1 3 2 4 5 7 6 

        </DataArray>
        <DataArray type="Int32" Name="offsets" format="ascii">
8 
        </DataArray>
        <DataArray type="UInt8" Name="types" format="ascii">
12 
        </DataArray>
      </Cells>
      <PointData>
        <DataArray type="Float64" Name="T">
          7.86364814e-02 1.77387467e-03 7.29009490e-02 3.51734293e-02 -1.24549053e-01 9.28442924e-02 -8.78404605e-02 -6.86166753e-02 
        </DataArray>
        <DataArray type="Float64" Name="ne">
          -3.52281589e+00 2.37260924e+00 -2.91917197e+00 1.55765869e+00 -9.88604983e-01 -2.43359526e-01 -1.39913037e+00 -9.30486689e-01 
        </DataArray>
        <DataArray type="Float64" Name="w">
          3.61556897e+00 6.89083542e-01 3.59511639e+00 -1.25277647e-01 2.13632332e+00 -4.98646682e-01 4.75406031e-01 -1.33358095e+00 
        </DataArray>
        <DataArray type="Float64" Name="phi">
          -2.70494088e+00 -2.37638752e-01 -2.40532864e+00 -4.87469842e-03 -2.13664191e+00 -2.06299940e-01 -1.77607636e+00 3.45523858e-01 
        </DataArray>
        <DataArray type="Float64" Name="gradphi0">
          2.46730213e+00 2.46730213e+00 2.40045395e+00 2.40045395e+00 1.93034197e+00 1.93034197e+00 2.12160022e+00 2.12160022e+00 
        </DataArray>
        <DataArray type="Float64" Name="gradphi1">
          2.99612235e-01 2.32764054e-01 2.99612235e-01 2.32764054e-01 3.60565545e-01 5.51823798e-01 3.60565545e-01 5.51823798e-01 
        </DataArray>
        <DataArray type="Float64" Name="gradphi2">
          5.68298972e-01 3.13388117e-02 6.29252281e-01 3.50398556e-01 5.68298972e-01 3.13388117e-02 6.29252281e-01 3.50398556e-01 
        </DataArray>
      </PointData>
    </Piece>
    <Piece NumberOfPoints="8" NumberOfCells="1">
      <Points>
        <DataArray type="Float64" NumberOfComponents="3" format="ascii">
          -2.50000000e+00 -2.50000000e+00 8.00000000e+00 
-1.50000000e+00 -2.50000000e+00 8.00000000e+00 
-2.50000000e+00 -1.50000000e+00 8.00000000e+00 
-1.50000000e+00 -1.50000000e+00 8.00000000e+00 
-2.50000000e+00 -2.50000000e+00 9.00000000e+00 
-1.50000000e+00 -2.50000000e+00 9.00000000e+00 
-2.50000000e+00 -1.50000000e+00 9.00000000e+00 
-1.50000000e+00 -1.50000000e+00 9.00000000e+00 

        </DataArray>
      </Points>
      <Cells>
        <DataArray type="Int32" Name="connectivity" format="ascii">
0 1 3 2 4 5 7 6 

        </DataArray>
        <DataArray type="Int32" Name="offsets" format="ascii">
8 
        </DataArray>
        <DataArray type="UInt8" Name="types" format="ascii">
12 
        </DataArray>
      </Cells>
      <PointData>
        <DataArray type="Float64" Name="T">
          -1.84404764e-01 -2.24170493e-01 -9.35611064e-02 -1.85974280e-01 -5.05945316e-01 -2.75038557e-01 -4.11549275e-01 -3.86511279e-01 
        </DataArray>
        <DataArray type="Float64" Name="ne">
          -1.82891894e+00 -1.44921180e-01 -1.78929395e+00 1.42147496e-01 -2.69259805e+00 -1.06413878e+00 -2.58173386e+00 -7.99287718e-01 
        </DataArray>
        <DataArray type="Float64" Name="w">
          2.10861753e+00 -3.73895375e-01 2.12157137e-01 -2.46675351e+00 4.46262530e+00 1.28084341e+00 2.48565244e+00 3.38734926e-01 
        </DataArray>
        <DataArray type="Float64" Name="phi">
          -2.13664191e+00 -2.06299940e-01 -1.77607636e+00 3.45523858e-01 -2.05555031e+00 -6.35576263e-02 -1.69881979e+00 2.26426985e-01 
        </DataArray>
        <DataArray type="Float64" Name="gradphi0">
          1.93034197e+00 1.93034197e+00 2.12160022e+00 2.12160022e+00 1.99199268e+00 1.99199268e+00 1.92524677e+00 1.92524677e+00 
        </DataArray>
        <DataArray type="Float64" Name="gradphi1">
          3.60565545e-01 5.51823798e-01 3.60565545e-01 5.51823798e-01 3.56730519e-01 2.89984611e-01 3.56730519e-01 2.89984611e-01 
        </DataArray>
        <DataArray type="Float64" Name="gradphi2">
          8.10916009e-02 1.42742314e-01 7.72565756e-02 -1.19096873e-01 8.10916009e-02 1.42742314e-01 7.72565756e-02 -1.19096873e-01 
        </DataArray>
      </PointData>
    </Piece>
    <Piece NumberOfPoints="8" NumberOfCells="1">
      <Points>
        <DataArray type="Float64" NumberOfComponents="3" format="ascii">
          -2.50000000e+00 -2.50000000e+00 9.00000000e+00 
-1.50000000e+00 -2.50000000e+00 9.00000000e+00 
-2.50000000e+00 -1.50000000e+00 9.00000000e+00 
-1.50000000e+00 -1.50000000e+00 9.00000000e+00 
-2.50000000e+00 -2.50000000e+00 1.00000000e+01 
-1.50000000e+00 -2.50000000e+00 1.00000000e+01 
-2.50000000e+00 -1.50000000e+00 1.00000000e+01 
-1.50000000e+00 -1.50000000e+00 1.00000000e+01 

        </DataArray>
      </Points>
      <Cells>
        <DataArray type="Int32" Name="connectivity" format="ascii">
0 1 3 2 4 5 7 6 

        </DataArray>
        <DataArray type="Int32" Name="offsets" format="ascii">
8 
        </DataArray>
        <DataArray type="UInt8" Name="types" format="ascii">
12 
        </DataArray>
      </Cells>
      <PointData>
        <DataArray type="Float64" Name="T">
          -3.65564148e-01 -2.00007024e-01 -4.65940245e-01 -2.88284531e-01 -1.00807839e-01 -6.69396066e-02 4.47606283e-02 -1.09253319e-01 
        </DataArray>
        <DataArray type="Float64" Name="ne">
          -1.53597991e+00 6.41593047e-01 -3.26049908e+00 -6.18826709e-02 -3.01488024e+00 -1.27311171e-01 6.63785757e-01 -1.36546174e+00 
        </DataArray>
        <DataArray type="Float64" Name="w">
          2.76238368e+00 7.54731504e-01 4.04933747e+00 -1.08084507e+00 4.95592012e-01 -4.28540216e-01 -9.18810685e-02 6.61388250e-01 
        </DataArray>
        <DataArray type="Float64" Name="phi">
          -2.05555031e+00 -6.35576263e-02 -1.69881979e+00 2.26426985e-01 -1.26180784e-10 -3.57596303e-01 -1.71580372e+00 -1.05251366e-01 
        </DataArray>
        <DataArray type="Float64" Name="gradphi0">
          1.99199268e+00 1.99199268e+00 1.92524677e+00 1.92524677e+00 -3.57596303e-01 -3.57596303e-01 1.61055236e+00 1.61055236e+00 
        </DataArray>
        <DataArray type="Float64" Name="gradphi1">
          3.56730519e-01 2.89984611e-01 3.56730519e-01 2.89984611e-01 -1.71580372e+00 2.52344936e-01 -1.71580372e+00 2.52344936e-01 
        </DataArray>
        <DataArray type="Float64" Name="gradphi2">
          2.05555031e+00 -2.94038677e-01 -1.69839360e-02 -3.31678351e-01 2.05555031e+00 -2.94038677e-01 -1.69839360e-02 -3.31678351e-01 
        </DataArray>
      </PointData>
    </Piece>
    <Piece NumberOfPoints="8" NumberOfCells="1">
      <Points>
        <DataArray type="Float64" NumberOfComponents="3" format="ascii">
          -2.50000000e+00 -1.50000000e+00 0.00000000e+00 
-1.50000000e+00 -1.50000000e+00 0.00000000e+00 
-2.50000000e+00 -5.00000000e-01 0.00000000e+00 
-1.50000000e+00 -5.00000000e-01 0.00000000e+00 
-2.50000000e+00 -1.50000000e+00 1.00000000e+00 
-1.50000000e+00 -1.50000000e+00 1.00000000e+00 
-2.50000000e+00 -5.00000000e-01 1.00000000e+00 
-1.50000000e+00 -5.00000000e-01 1.00000000e+00 

        </DataArray>
      </Points>
      <Cells>
        <DataArray type="Int32" Name="connectivity" format="ascii">
0 1 3 2 4 5 7 6 

        </DataArray>
        <DataArray type="Int32" Name="offsets" format="ascii">
8 
        </DataArray>
        <DataArray type="UInt8" Name="types" format="ascii">
12 
        </DataArray>
      </Cells>
      <PointData>
        <DataArray type="Float64" Name="T">
          2.63338930e-02 2.80146817e-02 3.08496797e-02 -6.40512937e-02 -9.77474156e-04 -3.46622617e-02 -3.08521245e-02 2.99368961e-01 
        </DataArray>
        <DataArray type="Float64" Name="ne">
          -4.74254497e+00 1.52921954e+00 -2.56266380e+00 9.18296793e-01 -9.03856541e+00 3.26788192e+00 -6.27996663e+00 1.87231570e+00 
        </DataArray>
        <DataArray type="Float64" Name="w">
          3.69462971e+00 -2.85153899e+00 3.70841063e+00 -2.38492627e+00 7.27196900e+00 5.32068864e+00 3.21897501e+00 1.86269769e+00 
        </DataArray>
        <DataArray type="Float64" Name="phi">
          -1.71580339e+00 -1.05252046e-01 -1.67379553e+00 -2.03010678e-01 -2.52565049e+00 -9.45184707e-01 -2.01201531e+00 -4.26029279e-01 
        </DataArray>
        <DataArray type="Float64" Name="gradphi0">
          1.61055134e+00 1.61055134e+00 1.47078485e+00 1.47078485e+00 1.58046578e+00 1.58046578e+00 1.58598603e+00 1.58598603e+00 
        </DataArray>
        <DataArray type="Float64" Name="gradphi1">
          4.20078547e-02 -9.77586323e-02 4.20078547e-02 -9.77586323e-02 5.13635177e-01 5.19155428e-01 5.13635177e-01 5.19155428e-01 
        </DataArray>
        <DataArray type="Float64" Name="gradphi2">
          -8.09847100e-01 -8.39932661e-01 -3.38219778e-01 -2.23018601e-01 -8.09847100e-01 -8.39932661e-01 -3.38219778e-01 -2.23018601e-01 
        </DataArray>
      </PointData>
    </Piece>
    <Piece NumberOfPoints="8" NumberOfCells="1">
      <Points>
        <DataArray type="Float64" NumberOfComponents="3" format="ascii">
          -2.50000000e+00 -1.50000000e+00 1.00000000e+00 
-1.50000000e+00 -1.50000000e+00 1.00000000e+00 
-2.50000000e+00 -5.00000000e-01 1.00000000e+00 
-1.50000000e+00 -5.00000000e-01 1.00000000e+00 
-2.50000000e+00 -1.50000000e+00 2.00000000e+00 
-1.50000000e+00 -1.50000000e+00 2.00000000e+00 
-2.50000000e+00 -5.00000000e-01 2.00000000e+00 
-1.50000000e+00 -5.00000000e-01 2.00000000e+00 

        </DataArray>
      </Points>
      <Cells>
        <DataArray type="Int32" Name="connectivity" format="ascii">
0 1 3 2 4 5 7 6 

        </DataArray>
        <DataArray type="Int32" Name="offsets" format="ascii">
8 
        </DataArray>
        <DataArray type="UInt8" Name="types" format="ascii">
12 
        </DataArray>
      </Cells>
      <PointData>
        <DataArray type="Float64" Name="T">
          1.32631740e-01 -4.78592208e-02 -6.10936153e-02 1.81280392e-01 2.56578286e-01 -1.55921408e-02 2.20382307e-01 -9.47765763e-02 
        </DataArray>
        <DataArray type="Float64" Name="ne">
          -7.55038578e+00 2.11483467e+00 -6.22169603e+00 2.64843558e+00 -4.55138980e+00 4.69710797e-02 -4.40020350e+00 -8.46353158e-01 
        </DataArray>
        <DataArray type="Float64" Name="w">
          7.22470343e+00 4.77519103e+00 4.35568643e+00 1.46343032e+00 6.02038000e+00 3.40807885e+00 5.70768843e+00 3.17488145e+00 
        </DataArray>
        <DataArray type="Float64" Name="phi">
          -2.52565049e+00 -9.45184707e-01 -2.01201531e+00 -4.26029279e-01 -2.68939579e+00 -7.15100013e-01 -2.41854869e+00 -7.10518927e-01 
        </DataArray>
        <DataArray type="Float64" Name="gradphi0">
          1.58046578e+00 1.58046578e+00 1.58598603e+00 1.58598603e+00 1.97429578e+00 1.97429578e+00 1.70802977e+00 1.70802977e+00 
        </DataArray>
        <DataArray type="Float64" Name="gradphi1">
          5.13635177e-01 5.19155428e-01 5.13635177e-01 5.19155428e-01 2.70847099e-01 4.58108588e-03 2.70847099e-01 4.58108588e-03 
        </DataArray>
        <DataArray type="Float64" Name="gradphi2">
          -1.63745306e-01 2.30084694e-01 -4.06533384e-01 -2.84489647e-01 -1.63745306e-01 2.30084694e-01 -4.06533384e-01 -2.84489647e-01 
        </DataArray>
      </PointData>
    </Piece>
    <Piece NumberOfPoints="8" NumberOfCells="1">
      <Points>
        <DataArray type="Float64" NumberOfComponents="3" format="ascii">
          -2.50000000e+00 -1.50000000e+00 2.00000000e+00 
-1.50000000e+00 -1.50000000e+00 2.00000000e+00 
-2.50000000e+00 -5.00000000e-01 2.00000000e+00 
-1.50000000e+00 -5.00000000e-01 2.00000000e+00 
-2.50000000e+00 -1.50000000e+00 3.00000000e+00 
-1.50000000e+00 -1.50000000e+00 3.00000000e+00 
-2.50000000e+00 -5.00000000e-01 3.00000000e+00 
-1.50000000e+00 -5.00000000e-01 3.00000000e+00 

        </DataArray>
      </Points>
      <Cells>
        <DataArray type="Int32" Name="connectivity" format="ascii">
0 1 3 2 4 5 7 6 

        </DataArray>
        <DataArray type="Int32" Name="offsets" format="ascii">
8 
        </DataArray>
        <DataArray type="UInt8" Name="types" format="ascii">
12 
        </DataArray>
      </Cells>
      <PointData>
        <DataArray type="Float64" Name="T">
          1.96508140e-01 4.55129172e-02 1.71973782e-01 5.26897295e-02 -1.96598278e-01 -1.33556543e-01 -1.73501324e-01 -1.12501704e-01 
        </DataArray>
        <DataArray type="Float64" Name="ne">
          -3.48862366e+00 4.91831367e-01 -3.92818339e+00 1.11228218e+00 1.56102675e+00 4.82000092e-01 1.60623123e+00 3.87305714e+00 
        </DataArray>
        <DataArray type="Float64" Name="w">
          3.66286524e+00 9.13088746e-01 3.62577249e+00 -5.41570707e-01 6.40681831e+00 -1.16652959e+00 5.91314454e+00 2.88464127e+00 
        </DataArray>
        <DataArray type="Float64" Name="phi">
          -2.68939579e+00 -7.15100013e-01 -2.41854869e+00 -7.10518927e-01 -2.48519991e+00 1.96106644e-02 -2.80277211e+00 -1.22482409e+00 